./h_chain.xyz HHHH rhf/gen                                              
SP        RHF                                                         Gen                 
Number of atoms                            I                4
Info1-9                                    I   N=           9
          24          22           0           0           0         110
           1           1           2
Charge                                     I                0
Multiplicity                               I                1
Number of electrons                        I                4
Number of alpha electrons                  I                2
Number of beta electrons                   I                2
Number of basis functions                  I                4
Number of independent functions            I                4
Number of point charges in /Mol/           I                0
Number of translation vectors              I                0
Atomic numbers                             I   N=           4
           1           1           1           1
Nuclear charges                            R   N=           4
  1.00000000E+00  1.00000000E+00  1.00000000E+00  1.00000000E+00
Current cartesian coordinates              R   N=          12
  0.00000000E+00  1.15470100E+00  0.00000000E+00  1.00000000E+00 -5.77350000E-01
  0.00000000E+00 -1.00000000E+00 -5.77350000E-01  0.00000000E+00  0.00000000E+00
  0.00000000E+00  8.16497000E-01
Force Field                                I                0
Int Atom Types                             I   N=           4
           0           0           0           0
MM charges                                 R   N=           4
  0.00000000E+00  0.00000000E+00  0.00000000E+00  0.00000000E+00
Integer atomic weights                     I   N=           4
           1           1           1           1
Real atomic weights                        R   N=           4
  1.00782504E+00  1.00782504E+00  1.00782504E+00  1.00782504E+00
Atom fragment info                         I   N=           4
           0           0           0           0
Atom residue num                           I   N=           4
           0           0           0           0
Nuclear spins                              I   N=           4
           1           1           1           1
Nuclear ZEff                               R   N=           4
 -1.00000000E+00 -1.00000000E+00 -1.00000000E+00 -1.00000000E+00
Nuclear ZNuc                               R   N=           4
  1.00000000E+00  1.00000000E+00  1.00000000E+00  1.00000000E+00
Nuclear QMom                               R   N=           4
  0.00000000E+00  0.00000000E+00  0.00000000E+00  0.00000000E+00
Nuclear GFac                               R   N=           4
  2.79284600E+00  2.79284600E+00  2.79284600E+00  2.79284600E+00
MicOpt                                     I   N=           4
          -1          -1          -1          -1
Number of contracted shells                I                4
Number of primitive shells                 I               24
Pure/Cartesian d shells                    I                0
Pure/Cartesian f shells                    I                0
Highest angular momentum                   I                0
Largest degree of contraction              I                6
Shell types                                I   N=           4
           0           0           0           0
Number of primitives per shell             I   N=           4
           6           6           6           6
Shell to atom map                          I   N=           4
           1           2           3           4
Primitive exponents                        R   N=          24
  3.55232212E+01  6.51314372E+00  1.82214290E+00  6.25955266E-01  2.43076747E-01
  1.00112428E-01  3.55232212E+01  6.51314372E+00  1.82214290E+00  6.25955266E-01
  2.43076747E-01  1.00112428E-01  3.55232212E+01  6.51314372E+00  1.82214290E+00
  6.25955266E-01  2.43076747E-01  1.00112428E-01  3.55232212E+01  6.51314372E+00
  1.82214290E+00  6.25955266E-01  2.43076747E-01  1.00112428E-01
Contraction coefficients                   R   N=          24
  9.16359628E-03  4.93614929E-02  1.68538305E-01  3.70562800E-01  4.16491530E-01
  1.30334084E-01  9.16359628E-03  4.93614929E-02  1.68538305E-01  3.70562800E-01
  4.16491530E-01  1.30334084E-01  9.16359628E-03  4.93614929E-02  1.68538305E-01
  3.70562800E-01  4.16491530E-01  1.30334084E-01  9.16359628E-03  4.93614929E-02
  1.68538305E-01  3.70562800E-01  4.16491530E-01  1.30334084E-01
Coordinates of each shell                  R   N=          12
  0.00000000E+00  1.15470100E+00  0.00000000E+00  1.00000000E+00 -5.77350000E-01
  0.00000000E+00 -1.00000000E+00 -5.77350000E-01  0.00000000E+00  0.00000000E+00
  0.00000000E+00  8.16497000E-01
Constraint Structure                       R   N=          12
  0.00000000E+00  1.15470100E+00  0.00000000E+00  1.00000000E+00 -5.77350000E-01
  0.00000000E+00 -1.00000000E+00 -5.77350000E-01  0.00000000E+00  0.00000000E+00
  0.00000000E+00  8.16497000E-01
Num ILSW                                   I              100
ILSW                                       I   N=         100
           0           0           0           0           2           0
           0           0           0           0           0          -1
           5           1           0           0           0           0
           0           0           0           0           0           0
           1           1           0           0           0           0
           0           0      100000           0          -1           0
           0           0           0           0           0           0
           0           0           0           1           0           0
           0           0           1           0           0           0
           0           0           4          41           0           0
           0           0           0           0           0           0
           0           0           0           4           0           0
           0           0           0           0           0           0
           0           0           0           0           0           0
           0           0           0           0           0           0
           0           0           0           0           0           0
           0           0           0           0
Num RLSW                                   I               41
RLSW                                       R   N=          41
  1.00000000E+00  1.00000000E+00  1.00000000E+00  1.00000000E+00  1.00000000E+00
  0.00000000E+00  0.00000000E+00  1.00000000E+00  0.00000000E+00  0.00000000E+00
  0.00000000E+00  0.00000000E+00  1.00000000E+00  0.00000000E+00  0.00000000E+00
  0.00000000E+00  0.00000000E+00  1.00000000E+00  0.00000000E+00  0.00000000E+00
  0.00000000E+00  0.00000000E+00  1.00000000E+00  0.00000000E+00  0.00000000E+00
  0.00000000E+00  0.00000000E+00  1.00000000E+00  0.00000000E+00  0.00000000E+00
  0.00000000E+00  0.00000000E+00  1.00000000E+00  0.00000000E+00  0.00000000E+00
  0.00000000E+00  0.00000000E+00  0.00000000E+00  1.00000000E+00  1.00000000E+00
  0.00000000E+00
MxBond                                     I                3
NBond                                      I   N=           4
           1           1           1           3
IBond                                      I   N=          12
           4           0           0           4           0           0
           4           0           0           1           2           3
RBond                                      R   N=          12
  1.00000000E+00  0.00000000E+00  0.00000000E+00  1.00000000E+00  0.00000000E+00
  0.00000000E+00  1.00000000E+00  0.00000000E+00  0.00000000E+00  1.00000000E+00
  1.00000000E+00  1.00000000E+00
Virial Ratio                               R      1.403303210190523E+00
SCF Energy                                 R     -1.419784496442036E+00
Total Energy                               R     -1.419784496442036E+00
RMS Density                                R      7.360715107492794E-10
External E-field                           R   N=          35
  0.00000000E+00  0.00000000E+00  0.00000000E+00  0.00000000E+00  0.00000000E+00
  0.00000000E+00  0.00000000E+00  0.00000000E+00  0.00000000E+00  0.00000000E+00
  0.00000000E+00  0.00000000E+00  0.00000000E+00  0.00000000E+00  0.00000000E+00
  0.00000000E+00  0.00000000E+00  0.00000000E+00  0.00000000E+00  0.00000000E+00
  0.00000000E+00  0.00000000E+00  0.00000000E+00  0.00000000E+00  0.00000000E+00
  0.00000000E+00  0.00000000E+00  0.00000000E+00  0.00000000E+00  0.00000000E+00
  0.00000000E+00  0.00000000E+00  0.00000000E+00  0.00000000E+00  0.00000000E+00
IOpCl                                      I                0
IROHF                                      I                0
Alpha Orbital Energies                     R   N=           4
 -8.78260396E-01 -3.52999023E-02  2.54532013E-01  7.93475137E-01
Alpha MO coefficients                      R   N=          16
  1.67032481E-01  2.88121187E-01  2.88121224E-01  4.49928886E-01  1.03749449E+00
 -6.16909992E-01 -6.16909805E-01  2.38393140E-01  9.51723179E-08  9.65034065E-01
 -9.65034186E-01  4.90721655E-08 -8.10307644E-01 -6.04988678E-01 -6.04988658E-01
  1.65555324E+00
Total SCF Density                          R   N=          10
  2.20858933E+00 -1.18383024E+00  9.27183513E-01 -1.18382984E+00  9.27183304E-01
  9.27183094E-01  6.44968615E-01 -3.48661309E-02 -3.48660088E-02  5.18534584E-01
Mulliken Charges                           R   N=           4
 -5.34078520E-01  2.14483967E-01  2.14484120E-01  1.05110433E-01
ONIOM Charges                              I   N=          16
           0           0           0           0           0           0
           0           0           0           0           0           0
           0           0           0           0
ONIOM Multiplicities                       I   N=          16
           1           0           0           0           0           0
           0           0           0           0           0           0
           0           0           0           0
Atom Layers                                I   N=           4
           1           1           1           1
Atom Modifiers                             I   N=           4
           0           0           0           0
Force Field                                I                0
Int Atom Modified Types                    I   N=           4
           0           0           0           0
Link Atoms                                 I   N=           4
           0           0           0           0
Atom Modified MM Charges                   R   N=           4
  0.00000000E+00  0.00000000E+00  0.00000000E+00  0.00000000E+00
Link Distances                             R   N=          16
  0.00000000E+00  0.00000000E+00  0.00000000E+00  0.00000000E+00  0.00000000E+00
  0.00000000E+00  0.00000000E+00  0.00000000E+00  0.00000000E+00  0.00000000E+00
  0.00000000E+00  0.00000000E+00  0.00000000E+00  0.00000000E+00  0.00000000E+00
  0.00000000E+00
Cartesian Gradient                         R   N=          12
  0.00000000E+00  0.00000000E+00  0.00000000E+00  0.00000000E+00  0.00000000E+00
  0.00000000E+00  0.00000000E+00  0.00000000E+00  0.00000000E+00  0.00000000E+00
  0.00000000E+00  0.00000000E+00
Dipole Moment                              R   N=           3
 -1.53942467E-07 -8.64365726E-01  8.58223530E-02
Quadrupole Moment                          R   N=           6
  9.37953038E-01 -1.38718784E+00  4.49234807E-01  2.35780413E-07  2.61022476E-08
 -1.67745037E-01
QEq coupling tensors                       R   N=          24
  1.90173084E-01  7.48215617E-09 -3.96215493E-01 -3.46721452E-09  2.56002483E-01
  2.06042409E-01 -1.59295855E-01  2.50781780E-01  1.37764724E-01  2.80582252E-01
 -1.39712238E-01  2.15311313E-02 -1.59295846E-01 -2.50781769E-01  1.37764739E-01
 -2.80582245E-01 -1.39712230E-01  2.15311064E-02 -2.80025509E-01 -4.78773708E-08
  3.80020329E-01 -1.66586556E-08 -1.55861212E-01 -9.99948202E-02
