
 Primary working directories    : /work/kimt33/data/molpro
 Secondary working directories  : /work/kimt33/data/molpro
 Wavefunction directory         : /home/kimt33/wfu/
 Main file repository           : /work/kimt33/data/molpro/

 SHA1      : 8df3a3274957fbe44ee5c6a97d8a53305a770421
 NAME      : 2012.1.8df3a32
 ARCHNAME  : Linux/x86_64
 FC        : /opt/intel/composer_xe_2013_sp1.2.144/bin/intel64/ifort
 FCVERSION : 14.0.2
 BLASLIB   : -Wl,-_start-group /opt/intel/mkl/lib/intel64/libmkl_intel_ilp64.a /opt/intel/mkl/lib/intel64/libmkl_sequential.a /opt/intel/mkl/lib/intel64/libmkl_core.a -Wl,-_end-group
 id        : mcmasterca

 Nodes     nprocs
 wob97        1

 Using customized tuning parameters: mindgm=7; mindgv=28; mindgc=1; mindgr=1; noblas=0; minvec=7
 default implementation of scratch files=df  

 ***,H2O ROHF
 file,1,h2o.int
 file,2,h2o.wfu
 
 gexpec,dm
 wf,charge=0,symmetry=1,spin=0
 
 symmetry,nosym
 angstrom
 geomtyp=xyz
 geometry={
 3
 O  0.000000   0.000000        -0.000000
 H  0.757000   0.586000         0.0000000
 H -0.757000   0.586000        -0.000000
 }
 
 basis=VTZ
 
 {rhf
 }
 
 {fci
 wf,10,1,0
 dump;
 }

 Variables initialized (778), CPU time= 0.00 sec
 Commands  initialized (547), CPU time= 0.02 sec, 516 directives.
 Default parameters read. Elapsed time= 1.10 sec

 Checking input...
 Passed
1


                                         ***  PROGRAM SYSTEM MOLPRO  ***
                         Copyright, University College Cardiff Consultants Limited, 2008

                                    Version 2012.1 linked Apr  1 2014 12:54:49


 **********************************************************************************************************************************
 LABEL *   H2O ROHF                                                                      
 Linux-2.6.32-358.14.1.el6.x86_64/wob97(x86_64) 64 bit serial version                    DATE: 08-Apr-15          TIME: 19:31:10  
 **********************************************************************************************************************************

 SHA1:             8df3a3274957fbe44ee5c6a97d8a53305a770421
 **********************************************************************************************************************************

 Variable memory set to    8000000 words,  buffer space   230000 words



 Permanent file  1  h2o.int  assigned.  Implementation=df  
 Permanent file  2  h2o.wfu  assigned.  Implementation=df    Size=  1.29 MB
 

 PROGRAM * RESTART 


 Reading variables from file 2

 _NUMVAR         =    786.00000000
 _DKROLL_DONE    =      0.00000000
 _FOCKDONE       =      1.00000000
 _INTDONE        =      1.00000000
 _SCFDONE        =      1.00000000
 _DIRECT         =      0.00000000
 _DKHO           =     -1.00000000
 _BASIS          =    VTZ
 _ZUNIT          =    ANG
 _CHARGE         =      0.00000000
 _NELEC          =     10.00000000
 _SPIN           =      0.00000000
 _SYMMETRY       =      1.00000000
 _PROGRAM        =    FCI
 _CPUSTEP        =      3.69000000
 _SYSSTEP        =      2.40000000
 _WALLSTEP       =      6.36000000
 _BASINP         =    610.00000000
 _CPUTOT         =      3.94000000
 _DFTEXFAC       =      1.00000000
 _DMX_SCF        =      0.00000000
 _DMY_SCF        =      0.79673571
 _DMZ_SCF        =      0.00000000
 _EHOMO          =     -0.50446841
 _ELUMO          =      0.14225943
 _ENUC           =      9.19391313
 _GRADEXFAC      =   9999.00000000
 _GRADMETHOD     =      1.00000000
 _LASTNELEC      =     10.00000000
 _LASTSPIN       =      0.00000000
 _LASTSYM        =      1.00000000
 _ORBITAL        =   2100.20000000
 _SEIG_MIN       =      0.00257090
 _SEWPROP        =      1.00000000
 _STATUS         =     -1.00000000
 _SYSTOT         =      3.07000000
 _WALLTOT        =      9.32000000
 _LASTORB        =    RHF
 _PGROUP         =    C1  
 _TIME           =    19:14:18

 Geometry written to block  1 of record 700


 **********************************************************************************************************************************
 DATASETS  * FILE   NREC   LENGTH (MB)   RECORD NAMES
              1       2        0.94       500      700   
                                          VAR     GEOM   

              2       6        1.36       500      610      700     1000      520     2100   
                                          VAR    BASINP    GEOM     BASIS   MCVARS     RHF  

 PROGRAMS   *        TOTAL   RESTART
 CPU TIMES  *         0.17      0.02
 REAL TIME  *         2.01 SEC
 DISK USED  *         0.03 MB      
 **********************************************************************************************************************************
 SETTING GEOMTYP        =    XYZ
 ZSYMEL=NOSYM
 ZUNIT=ANG
 
 SETTING BASIS          =    VTZ


 Recomputing integrals since basis changed


 Using spherical harmonics

 Library entry O      S cc-pVTZ              selected for orbital group  1
 Library entry O      P cc-pVTZ              selected for orbital group  1
 Library entry O      D cc-pVTZ              selected for orbital group  1
 Library entry O      F cc-pVTZ              selected for orbital group  1
 Library entry H      S cc-pVTZ              selected for orbital group  2
 Library entry H      P cc-pVTZ              selected for orbital group  2
 Library entry H      D cc-pVTZ              selected for orbital group  2

1PROGRAM * SEWARD (Integral evaluation for generally contracted gaussian basis sets)     Author: Roland Lindh, 1990

 Geometry written to block  1 of record 700


 Point group  C1  



 ATOMIC COORDINATES

 NR  ATOM    CHARGE       X              Y              Z

   1  O       8.00    0.000000000    0.000000000    0.000000000
   2  H       1.00    1.430522681    1.107379513    0.000000000
   3  H       1.00   -1.430522681    1.107379513    0.000000000

 Bond lengths in Bohr (Angstrom)

 1-2  1.809056253  1-3  1.809056253
     ( 0.957311339)     ( 0.957311339)

 Bond angles

  2-1-3  104.51249573

 NUCLEAR CHARGE:                   10
 NUMBER OF PRIMITIVE AOS:          81
 NUMBER OF SYMMETRY AOS:           74
 NUMBER OF CONTRACTIONS:           58   (  58A   )
 NUMBER OF CORE ORBITALS:           1   (   1A   )
 NUMBER OF VALENCE ORBITALS:        6   (   6A   )


 NUCLEAR REPULSION ENERGY    9.19391313

 EXTRA SYMMETRY OF AOS IN SYMMETRY 1:   1 1 1 1 1 1 2 1 1 2   1 1 2 1 1 2 1 2 1 1   2 1 2 1 1 2 1 2 1 2   1 1 1 1 1 2 1 1 2 1
                                        1 2 1 2 1 1 1 1 1 2   1 1 2 1 1 2 1 2

 Eigenvalues of metric

         1 0.257E-02 0.473E-02 0.577E-02 0.756E-02 0.108E-01 0.402E-01 0.415E-01 0.479E-01


 Contracted 2-electron integrals neglected if value below      1.0D-11
 AO integral compression algorithm  1   Integral accuracy      1.0D-11

     4.719 MB (compressed) written to integral file ( 32.5%)


 NUMBER OF SORTED TWO-ELECTRON INTEGRALS:    1464616.     BUFFER LENGTH:  32768
 NUMBER OF SEGMENTS:   1  SEGMENT LENGTH:    1464616      RECORD LENGTH: 524288

 Memory used in sort:       2.02 MW

 SORT1 READ     1852866. AND WROTE      683231. INTEGRALS IN      2 RECORDS. CPU TIME:     0.03 SEC, REAL TIME:     0.08 SEC
 SORT2 READ      683231. AND WROTE     1464616. INTEGRALS IN     18 RECORDS. CPU TIME:     0.08 SEC, REAL TIME:     0.15 SEC

 FILE SIZES:   FILE 1:    12.4 MBYTE,  FILE 4:     8.4 MBYTE,   TOTAL:     20.8 MBYTE

 OPERATOR DM      FOR CENTER  0  COORDINATES:    0.000000    0.000000    0.000000


 **********************************************************************************************************************************
 DATASETS  * FILE   NREC   LENGTH (MB)   RECORD NAMES
              1      19       11.30       500      700      610      900      950      970     1000      129      960     1100   
                                          VAR     GEOM    BASINP   SYMINP    ZMAT    AOBASIS   BASIS     P2S    ABASIS      S 
                                         1400     1410     1200     1210     1080     1600     1650     1300     1700   
                                           T        V       H0       H01     AOSYM     SMH    MOLCAS    ERIS     OPER   

              2       6        1.36       500      610      700     1000      520     2100   
                                          VAR    BASINP    GEOM     BASIS   MCVARS     RHF  

 PROGRAMS   *        TOTAL       INT   RESTART
 CPU TIMES  *         0.52      0.34      0.02
 REAL TIME  *         3.80 SEC
 DISK USED  *        22.21 MB      
 **********************************************************************************************************************************

1PROGRAM * RHF-SCF (CLOSED SHELL)       Authors: W. Meyer, H.-J. Werner


 NUMBER OF ELECTRONS:       5+    5-    SPACE SYMMETRY=1    SPIN SYMMETRY: Singlet 
 CONVERGENCE THRESHOLDS:    1.00E-05 (Density)    1.00E-07 (Energy)
 MAX. NUMBER OF ITERATIONS:       60
 INTERPOLATION TYPE:            DIIS
 INTERPOLATION STEPS:              2 (START)      1 (STEP)
 LEVEL SHIFTS:                  0.00 (CLOSED)  0.00 (OPEN) 



 Molecular orbitals read from record     2100.2  Type=RHF/CANONICAL (state 1.1)

 Molecular orbital dump at record        2100.2

 ITERATION    DDIFF          GRAD             ENERGY        2-EL.EN.            DIPOLE MOMENTS         DIIS   ORB.
    1      0.000D+00      0.000D+00       -76.05716068     75.732995    0.00000    0.79674    0.00000    0    start
    2      0.000D+00      0.764D-08       -76.05716068     75.732996    0.00000    0.79674    0.00000    0    orth

 Final occupancy:   5

 !RHF STATE 1.1 Energy                -76.057160680274
 Nuclear energy                         9.19391313
 One-electron energy                 -123.11757174
 Two-electron energy                   37.86649793
 Virial quotient                       -1.00068123
 !RHF STATE 1.1 Dipole moment           0.00000000     0.79673573     0.00000000
 Dipole moment /Debye                   0.00000000     2.02496760     0.00000000

 Orbital energies:

         1.1          2.1          3.1          4.1          5.1          6.1          7.1
    -20.554749    -1.345623    -0.709744    -0.577704    -0.504468     0.142259     0.204043

 HOMO      5.1    -0.504468 =     -13.7273eV
 LUMO      6.1     0.142259 =       3.8711eV
 LUMO-HOMO         0.646728 =      17.5984eV


 **********************************************************************************************************************************
 DATASETS  * FILE   NREC   LENGTH (MB)   RECORD NAMES
              1      19       11.30       500      700      610      900      950      970     1000      129      960     1100   
                                          VAR     GEOM    BASINP   SYMINP    ZMAT    AOBASIS   BASIS     P2S    ABASIS      S 
                                         1400     1410     1200     1210     1080     1600     1650     1300     1700   
                                           T        V       H0       H01     AOSYM     SMH    MOLCAS    ERIS     OPER   

              2       6        1.36       500      610      700     1000      520     2100   
                                          VAR    BASINP    GEOM     BASIS   MCVARS     RHF  

 PROGRAMS   *        TOTAL       RHF       INT   RESTART
 CPU TIMES  *         0.59      0.07      0.34      0.02
 REAL TIME  *         4.36 SEC
 DISK USED  *        22.21 MB      
 **********************************************************************************************************************************

1PROGRAM * FCI (Full CI)     Author: P.J. Knowles, 1984

 ***  Initialisation ***
 
 Molecular orbitals read from record     2100.2  Type=RHF/CANONICAL (state 1.1)
 
 Frozen orbitals:              1 (  1  0  0  0  0  0  0  0)
 Active orbitals:             57 ( 57  0  0  0  0  0  0  0)
 Active electrons:             8
 Spin quantum number:          0.0

 Transformed integrals will be written to file FCIDUMP (relative to TMPDIR)
 File format: FCIDUMP.

 Load integrals                0.6 sec
 Transform integrals           0.9 sec
 Storage for integrals:        2738964
 Remaining memory:             5250674

 Core energy:             -52.12261527
 Run Hamiltonian processor DUMP    
 Symmetry:                   1
 Trial vector:                  0.00
 Result vector:                 0.00
 Maximum iterations:           90
 Convergence threshold:         0.0000100
 RHS vector:                    0.00
 Hamiltonian shift:             0.0000000
 Output threshold:              0.0500000
 Options:                        0
 Number of roots:             1


 **********************************************************************************************************************************
 DATASETS  * FILE   NREC   LENGTH (MB)   RECORD NAMES
              1      19       11.30       500      700      610      900      950      970     1000      129      960     1100   
                                          VAR     GEOM    BASINP   SYMINP    ZMAT    AOBASIS   BASIS     P2S    ABASIS      S 
                                         1400     1410     1200     1210     1080     1600     1650     1300     1700   
                                           T        V       H0       H01     AOSYM     SMH    MOLCAS    ERIS     OPER   

              2       6        1.36       500      610      700     1000      520     2100   
                                          VAR    BASINP    GEOM     BASIS   MCVARS     RHF  

 PROGRAMS   *        TOTAL       FCI       RHF       INT   RESTART
 CPU TIMES  *         5.98      5.39      0.07      0.34      0.02
 REAL TIME  *        26.78 SEC
 DISK USED  *        22.21 MB      
 **********************************************************************************************************************************

        RHF-SCF 
    -76.05716068
 **********************************************************************************************************************************
 Variable memory released
